    -----------------------------------------------------------------------
          PSI4: An Open-Source Ab Initio Electronic Structure Package
                              PSI 4.0.0-beta5+ Driver

               Git: Rev {master} 424131aeff3005f331c282ad3bf3fc48c04b20a4

    J. M. Turney, A. C. Simmonett, R. M. Parrish, E. G. Hohenstein,
    F. A. Evangelista, J. T. Fermann, B. J. Mintz, L. A. Burns, J. J. Wilke,
    M. L. Abrams, N. J. Russ, M. L. Leininger, C. L. Janssen, E. T. Seidl,
    W. D. Allen, H. F. Schaefer, R. A. King, E. F. Valeev, C. D. Sherrill,
    and T. D. Crawford, WIREs Comput. Mol. Sci. 2, 556-565 (2012)
    (doi: 10.1002/wcms.93)

                         Additional Contributions by
    A. E. DePrince, M. Saitow, U. Bozkaya, A. Yu. Sokolov
    -----------------------------------------------------------------------

    Process ID:   4060
    PSI4DATADIR: /opt/science/psi/psi4/share/psi

    Using LocalCommunicator (Number of processes = 1)

    Memory level set to 256.000 MB

  ==> Input File <==

--------------------------------------------------------------------------
#! RHF cc-pVQZ energy for the BH molecule, with Cartesian input.

memory 500 mb

nucenergy =   2.64588604295000  #TEST
refenergy =  -25.1035468969791  #TEST

molecule bh {
    b      0.0000        0.0000        0.0000
    h      0.0000        0.0000        1.0000
}

set globals = {
    scf_type   direct
    basis      cc-pVQZ
    e_convergence 10
}

thisenergy = energy('scf')

compare_values(nucenergy, bh.nuclear_repulsion_energy(), 9, "Nuclear repulsion energy") #TEST
compare_values(refenergy, thisenergy, 9, "Reference energy")                            #TEST
--------------------------------------------------------------------------

  Memory set to 500.000 MiB by Python script.

*** tstart() called on bohr
*** at Sun Mar 15 18:29:05 2015

	There are an even number of electrons - assuming singlet.
	Specify the multiplicity with the MULTP option in the
	input if this is incorrect


         ---------------------------------------------------------
                                   SCF
            by Justin Turney, Rob Parrish, and Andy Simmonett
                              RHF Reference
                        1 Threads,    500 MiB Core
         ---------------------------------------------------------

  ==> Geometry <==

    Molecular point group: c2v
    Full point group: C_inf_v

    Geometry (in Angstrom), charge = 0, multiplicity = 1:

       Center              X                  Y                   Z       
    ------------   -----------------  -----------------  -----------------
           B          0.000000000000     0.000000000000    -0.083865697994
           H          0.000000000000     0.000000000000     0.916134302006

  Running in c2v symmetry.


	Rotational constants (cm^-1):
	A = **********    B =   18.25796   C =   18.25796

	Rotational constants (MHz):
	A = **********    B = 547359.81574   C = 547359.81574
  Nuclear repulsion =    2.645886042950000

  Charge       = 0
  Multiplicity = 1
  Electrons    = 6
  Nalpha       = 3
  Nbeta        = 3

  ==> Algorithm <==

  SCF Algorithm Type is DIRECT.
  DIIS enabled.
  MOM disabled.
  Fractional occupation disabled.
  Guess Type is CORE.
  Energy threshold   = 1.00e-10
  Density threshold  = 1.00e-06
  Integral threshold = 0.00e+00

  ==> Primary Basis <==

  Basis Set: CC-PVQZ
    Number of shells: 25
    Number of basis function: 85
    Number of Cartesian functions: 105
    Spherical Harmonics?: true
    Max angular momentum: 4

  ==> Pre-Iterations <==

   -------------------------------------------------------
    Irrep   Nso     Nmo     Nalpha   Nbeta   Ndocc  Nsocc
   -------------------------------------------------------
     A1        35      35       0       0       0       0
     A2        10      10       0       0       0       0
     B1        20      20       0       0       0       0
     B2        20      20       0       0       0       0
   -------------------------------------------------------
    Total      85      85       3       3       3       0
   -------------------------------------------------------

  Starting with a DF guess...

 OEINTS: Wrapper to libmints.
   by Justin Turney

   Calculation information:
      Number of atoms:                   2
      Number of AO shells:              25
      Number of SO shells:              25
      Number of primitives:             45
      Number of atomic orbitals:       105
      Number of basis functions:        85

      Number of irreps:                  4
      Number of functions per irrep: [  35   10   20   20 ]

      Overlap, kinetic, potential, dipole, and quadrupole integrals
        stored in file 35.

  ==> Integral Setup <==

  ==> DFJK: Density-Fitted J/K Matrices <==

    J tasked:                  Yes
    K tasked:                  Yes
    wK tasked:                  No
    OpenMP threads:              1
    Integrals threads:           1
    Memory (MB):               357
    Algorithm:                Core
    Integral Cache:           NONE
    Schwarz Cutoff:          1E-12
    Fitting Condition:       1E-12

   => Auxiliary Basis Set <=

  Basis Set: CC-PVDZ-JKFIT
    Number of shells: 33
    Number of basis function: 93
    Number of Cartesian functions: 106
    Spherical Harmonics?: true
    Max angular momentum: 3

  Minimum eigenvalue in the overlap matrix is 2.2491309807E-04.
  Using Symmetric Orthogonalization.
  SCF Guess: Core (One-Electron) Hamiltonian.

  ==> Iterations <==

                           Total Energy        Delta E     RMS |[F,P]|

	Occupation by irrep:
	         A1    A2    B1    B2 
	DOCC [     3,    0,    0,    0 ]

   @DF-RHF iter   1:   -21.36555251601781   -2.13656e+01   7.14241e-02 
   @DF-RHF iter   2:   -24.32288482012138   -2.95733e+00   1.66340e-02 DIIS
   @DF-RHF iter   3:   -25.09000196365403   -7.67117e-01   2.95551e-03 DIIS
   @DF-RHF iter   4:   -25.10256462194118   -1.25627e-02   5.35660e-04 DIIS
   @DF-RHF iter   5:   -25.10350706177796   -9.42440e-04   1.04433e-04 DIIS
   @DF-RHF iter   6:   -25.10355781108826   -5.07493e-05   1.37045e-05 DIIS
   @DF-RHF iter   7:   -25.10355851540901   -7.04321e-07   1.33467e-06 DIIS
   @DF-RHF iter   8:   -25.10355852022670   -4.81769e-09   1.29924e-07 DIIS
   @DF-RHF iter   9:   -25.10355852029021   -6.35083e-11   2.96136e-08 DIIS

  DF guess converged.

  ==> Integral Setup <==

  ==> DirectJK: Integral-Direct J/K Matrices <==

    J tasked:                  Yes
    K tasked:                  Yes
    wK tasked:                  No
    Integrals threads:           1
    Schwarz Cutoff:          1E-12

   @RHF iter  10:   -25.10354677193381    1.17484e-05   1.69654e-05 DIIS
   @RHF iter  11:   -25.10354689533694   -1.23403e-07   1.60803e-06 DIIS
   @RHF iter  12:   -25.10354689695848   -1.62155e-09   1.05140e-07 DIIS
   @RHF iter  13:   -25.10354689697836   -1.98774e-11   1.38328e-08 DIIS

  ==> Post-Iterations <==

	Orbital Energies (a.u.)
	-----------------------

	Doubly Occupied:                                                      

	   1A1    -7.656449     2A1    -0.715781     3A1    -0.341709  

	Virtual:                                                              

	   1B1     0.045923     1B2     0.045923     4A1     0.154085  
	   5A1     0.215379     6A1     0.264489     2B2     0.267602  
	   2B1     0.267602     3B2     0.395341     3B1     0.395341  
	   1A2     0.408508     7A1     0.408508     8A1     0.498906  
	   9A1     0.694962    10A1     0.760301     4B2     0.858235  
	   4B1     0.858235     5B2     1.013777     5B1     1.013777  
	  11A1     1.210558     6B1     1.219679     6B2     1.219679  
	   2A2     1.221072    12A1     1.221072     7B2     1.316383  
	   7B1     1.316383    13A1     1.341361     3A2     1.341361  
	  14A1     1.348576    15A1     1.473935     8B2     1.532751  
	   8B1     1.532751    16A1     1.726656    17A1     2.136117  
	   4A2     2.538373    18A1     2.538373     9B2     2.610957  
	   9B1     2.610957    19A1     2.855272    10B2     3.064834  
	  10B1     3.064834    20A1     3.397074     5A2     3.397074  
	  11B1     3.412515    11B2     3.412515    21A1     3.566685  
	  12B2     3.739854    12B1     3.739854     6A2     3.809173  
	  22A1     3.809173    23A1     3.897341     7A2     3.897341  
	  24A1     3.908670    13B2     3.947554    13B1     3.947554  
	  14B2     3.949190    14B1     3.949190    15B2     4.001132  
	  15B1     4.001132    25A1     4.099324     8A2     4.099324  
	  26A1     4.138267    27A1     5.032926    28A1     5.283525  
	  16B2     5.505709    16B1     5.505709    17B1     6.418822  
	  17B2     6.418822    29A1     7.300731    18B1     7.574075  
	  18B2     7.574075    30A1     7.596982     9A2     7.596982  
	  31A1     8.191050    10A2     8.448402    32A1     8.448402  
	  19B1     8.895755    19B2     8.895755    20B2     9.775047  
	  20B1     9.775047    33A1     9.801553    34A1    11.149102  
	  35A1    17.128233  

	Final Occupation by Irrep:
	         A1    A2    B1    B2 
	DOCC [     3,    0,    0,    0 ]

  Energy converged.

  @RHF Final Energy:   -25.10354689697836

   => Energetics <=

    Nuclear Repulsion Energy =              2.6458860429499995
    One-Electron Energy =                 -38.0709876270852163
    Two-Electron Energy =                  10.3215546871568566
    DFT Exchange-Correlation Energy =       0.0000000000000000
    Empirical Dispersion Energy =           0.0000000000000000
    Total Energy =                        -25.1035468969783651



Properties will be evaluated at   0.000000,   0.000000,   0.000000 Bohr
  ==> Properties <==


Properties computed using the SCF density matrix

  Nuclear Dipole Moment: (a.u.)
     X:     0.0000      Y:     0.0000      Z:     0.9388

  Electronic Dipole Moment: (a.u.)
     X:     0.0000      Y:     0.0000      Z:    -0.0281

  Dipole Moment: (a.u.)
     X:     0.0000      Y:     0.0000      Z:     0.9107     Total:     0.9107

  Dipole Moment: (Debye)
     X:     0.0000      Y:     0.0000      Z:     2.3148     Total:     2.3148


  Saving occupied orbitals to File 180.

*** tstop() called on bohr at Sun Mar 15 18:29:08 2015
Module time:
	user time   =       2.41 seconds =       0.04 minutes
	system time =       0.04 seconds =       0.00 minutes
	total time  =          3 seconds =       0.05 minutes
Total time:
	user time   =       2.41 seconds =       0.04 minutes
	system time =       0.04 seconds =       0.00 minutes
	total time  =          3 seconds =       0.05 minutes

*** PSI4 exiting successfully. Buy a developer a beer!
