 argument  1 = dft_feco5.nw



============================== echo of input deck ==============================
echo

start dft_feco5

# test of DFT with Fe(CO)5 using cd basis and xc basis

# There are 2 million integrals

geometry units au
  symmetry group d3h

  fe 0.0 0.0 0.0

  c 0.0 0.0 3.414358
  o 0.0 0.0 5.591323

  c 2.4417087 2.4417087 0.0
  o 3.9810552 3.9810552 0.0
end

basis "ao basis"
  o library "DZVP (DFT Orbital)"
  c library "DZVP (DFT Orbital)"
 fe library "DZVP (DFT Orbital)"
end

basis "cd basis"
  o library "DGauss A1 DFT Coulomb Fitting"
  c library "DGauss A1 DFT Coulomb Fitting"
 fe library "DGauss A1 DFT Coulomb Fitting"
end

basis "xc basis"
  o library "DGauss A1 DFT Exchange Fitting"
  c library "DGauss A1 DFT Exchange Fitting"
 fe library "DGauss A1 DFT Exchange Fitting"
end

dft
  xc acm
end

task dft energy

================================================================================


                                         
                                         


              Northwest Computational Chemistry Package (NWChem) 6.5
              ------------------------------------------------------


                    Environmental Molecular Sciences Laboratory
                       Pacific Northwest National Laboratory
                                Richland, WA 99352

                              Copyright (c) 1994-2014
                       Pacific Northwest National Laboratory
                            Battelle Memorial Institute

             NWChem is an open-source computational chemistry package
                        distributed under the terms of the
                      Educational Community License (ECL) 2.0
             A copy of the license is included with this distribution
                              in the LICENSE.TXT file

                                  ACKNOWLEDGMENT
                                  --------------

            This software and its documentation were developed at the
            EMSL at Pacific Northwest National Laboratory, a multiprogram
            national laboratory, operated for the U.S. Department of Energy
            by Battelle under Contract Number DE-AC05-76RL01830. Support
            for this work was provided by the Department of Energy Office
            of Biological and Environmental Research, Office of Basic
            Energy Sciences, and the Office of Advanced Scientific Computing.


           Job information
           ---------------

    hostname        = mbe-laptop
    program         = nwchem
    date            = Sun Mar 15 17:49:02 2015

    compiled        = Thu_Jan_01_17:23:27_2015
    source          = /opt/science/nwchem/6.5
    nwchem branch   = 6.5
    nwchem revision = 26494
    ga revision     = N/A
    input           = dft_feco5.nw
    prefix          = dft_feco5.
    data base       = ./dft_feco5.db
    status          = startup
    nproc           =        1
    time left       =     -1s



           Memory information
           ------------------

    heap     =   64317212 doubles =    490.7 Mbytes
    stack    =   64317217 doubles =    490.7 Mbytes
    global   =  128634432 doubles =    981.4 Mbytes (distinct from heap & stack)
    total    =  257268861 doubles =   1962.8 Mbytes
    verify   = yes
    hardfail = no 


           Directory information
           ---------------------

  0 permanent = .
  0 scratch   = .




                                NWChem Input Module
                                -------------------


 Turning off AUTOSYM since
 SYMMETRY directive was detected!


          ------
          auto-z
          ------
  Looking for out-of-plane bends


                             Geometry "geometry" -> ""
                             -------------------------

 Output coordinates in a.u. (scale by  1.000000000 to convert to a.u.)

  No.       Tag          Charge          X              Y              Z
 ---- ---------------- ---------- -------------- -------------- --------------
    1 fe                  26.0000     0.00000000     0.00000000     0.00000000
    2 c                    6.0000    -0.00000000    -0.00000000     3.41435800
    3 c                    6.0000     0.00000000    -0.00000000    -3.41435800
    4 o                    8.0000    -0.00000000    -0.00000000     5.59132300
    5 o                    8.0000     0.00000000    -0.00000000    -5.59132300
    6 c                    6.0000     2.44170870     2.44170870     0.00000000
    7 c                    6.0000    -3.33543611     0.89372741     0.00000000
    8 c                    6.0000     0.89372741    -3.33543611     0.00000000
    9 o                    8.0000     3.98105520     3.98105520     0.00000000
   10 o                    8.0000    -5.43822254     1.45716734     0.00000000
   11 o                    8.0000     1.45716734    -5.43822254     0.00000000

      Atomic Mass 
      ----------- 

      fe                55.934900
      c                 12.000000
      o                 15.994910


 Effective nuclear repulsion energy (a.u.)     798.4956180942

            Nuclear Dipole moment (a.u.) 
            ----------------------------
        X                 Y               Z
 ---------------- ---------------- ----------------
    -0.0000000000    -0.0000000000     0.0000000000

      Symmetry information
      --------------------

 Group name             D3h       
 Group number             27
 Group order              12
 No. of unique centers     5

      Symmetry unique atoms

     1    2    4    6    9



                                Z-matrix (autoz)
                                -------- 

 Units are Angstrom for bonds and degrees for angles

      Type          Name      I     J     K     L     M      Value
      ----------- --------  ----- ----- ----- ----- ----- ----------
    1 Stretch                  1     2                       1.80680
    2 Stretch                  1     3                       1.80680
    3 Stretch                  1     6                       1.82730
    4 Stretch                  1     7                       1.82730
    5 Stretch                  1     8                       1.82730
    6 Stretch                  2     4                       1.15200
    7 Stretch                  3     5                       1.15200
    8 Stretch                  6     9                       1.15200
    9 Stretch                  7    10                       1.15200
   10 Stretch                  8    11                       1.15200
   11 Bend                     2     1     6                90.00000
   12 Bend                     2     1     7                90.00000
   13 Bend                     2     1     8                90.00000
   14 Bend                     3     1     6                90.00000
   15 Bend                     3     1     7                90.00000
   16 Bend                     3     1     8                90.00000
   17 Bend                     4     1     6                90.00000
   18 Bend                     4     1     7                90.00000
   19 Bend                     4     1     8                90.00000
   20 Bend                     5     1     6                90.00000
   21 Bend                     5     1     7                90.00000
   22 Bend                     5     1     8                90.00000
   23 Bend                     6     1     7               120.00000
   24 Bend                     6     1     8               120.00000
   25 Bend                     7     1     8               120.00000
   26 Bend                     9     1     2                90.00000
   27 Bend                     9     1     3                90.00000
   28 Bend                     9     1     7               120.00000
   29 Bend                     9     1     8               120.00000
   30 Bend                    10     1     2                90.00000
   31 Bend                    10     1     3                90.00000
   32 Bend                    10     1     6               120.00000
   33 Bend                    10     1     8               120.00000
   34 Bend                    11     1     2                90.00000
   35 Bend                    11     1     3                90.00000
   36 Bend                    11     1     6               120.00000
   37 Bend                    11     1     7               120.00000
   38 Torsion                  1     2     6     9         180.00000
   39 Torsion                  1     2     7    10         180.00000
   40 Torsion                  1     2     8    11        -180.00000
   41 Torsion                  1     3     6     9        -180.00000
   42 Torsion                  1     3     7    10        -180.00000
   43 Torsion                  1     3     8    11         180.00000
   44 Torsion                  1     6     2     4         180.00000
   45 Torsion                  1     6     3     5        -180.00000
   46 Torsion                  1     6     7    10         180.00000
   47 Torsion                  1     6     8    11         180.00000
   48 Torsion                  1     7     2     4        -180.00000
   49 Torsion                  1     7     3     5         180.00000
   50 Torsion                  1     7     6     9         180.00000
   51 Torsion                  1     7     8    11         180.00000
   52 Torsion                  1     8     2     4         180.00000
   53 Torsion                  1     8     3     5        -180.00000
   54 Torsion                  1     8     6     9         180.00000
   55 Torsion                  1     8     7    10         180.00000


            XYZ format geometry
            -------------------
    11
 geometry
 fe                    0.00000000     0.00000000     0.00000000
 c                    -0.00000000    -0.00000000     1.80680057
 c                     0.00000000    -0.00000000    -1.80680057
 o                    -0.00000000    -0.00000000     2.95880092
 o                     0.00000000    -0.00000000    -2.95880092
 c                     1.29209669     1.29209669     0.00000000
 c                    -1.76503691     0.47294021     0.00000000
 c                     0.47294021    -1.76503691     0.00000000
 o                     2.10668384     2.10668384     0.00000000
 o                    -2.87778364     0.77109980     0.00000000
 o                     0.77109980    -2.87778364     0.00000000

 ==============================================================================
                                internuclear distances
 ------------------------------------------------------------------------------
       center one      |      center two      | atomic units |       a.u.
 ------------------------------------------------------------------------------
    2 c                |   1 fe               |     3.41436  |     3.41436
    3 c                |   1 fe               |     3.41436  |     3.41436
    4 o                |   2 c                |     2.17697  |     2.17697
    5 o                |   3 c                |     2.17697  |     2.17697
    6 c                |   1 fe               |     3.45310  |     3.45310
    7 c                |   1 fe               |     3.45310  |     3.45310
    8 c                |   1 fe               |     3.45310  |     3.45310
    9 o                |   6 c                |     2.17696  |     2.17696
   10 o                |   7 c                |     2.17696  |     2.17696
   11 o                |   8 c                |     2.17696  |     2.17696
 ------------------------------------------------------------------------------
                         number of included internuclear distances:         10
 ==============================================================================



 ==============================================================================
                                 internuclear angles
 ------------------------------------------------------------------------------
        center 1       |       center 2       |       center 3       |  degrees
 ------------------------------------------------------------------------------
    2 c                |   1 fe               |   3 c                |   180.00
    2 c                |   1 fe               |   6 c                |    90.00
    2 c                |   1 fe               |   7 c                |    90.00
    2 c                |   1 fe               |   8 c                |    90.00
    3 c                |   1 fe               |   6 c                |    90.00
    3 c                |   1 fe               |   7 c                |    90.00
    3 c                |   1 fe               |   8 c                |    90.00
    6 c                |   1 fe               |   7 c                |   120.00
    6 c                |   1 fe               |   8 c                |   120.00
    7 c                |   1 fe               |   8 c                |   120.00
    1 fe               |   2 c                |   4 o                |   180.00
    1 fe               |   3 c                |   5 o                |   180.00
    1 fe               |   6 c                |   9 o                |   180.00
    1 fe               |   7 c                |  10 o                |   180.00
    1 fe               |   8 c                |  11 o                |   180.00
 ------------------------------------------------------------------------------
                            number of included internuclear angles:         15
 ==============================================================================



  library name resolved from: environment
  library file name is: </opt/science/nwchem/current/src/basis/libraries/>
  
                      Basis "ao basis" -> "" (cartesian)
                      -----
  o (Oxygen)
  ----------
            Exponent  Coefficients 
       -------------- ---------------------------------------------------------
  1 S  5.22290220E+03 -0.001936
  1 S  7.82539940E+02 -0.014851
  1 S  1.77267430E+02 -0.073319
  1 S  4.95166880E+01 -0.245116
  1 S  1.56664400E+01 -0.480285
  1 S  5.17935990E+00 -0.335943

  2 S  1.06014410E+01  0.078806
  2 S  9.42317000E-01 -0.567695

  3 S  2.77474600E-01  1.000000

  4 P  3.34241260E+01  0.017560
  4 P  7.62217140E+00  0.107630
  4 P  2.23820930E+00  0.323526
  4 P  6.86730000E-01  0.483223

  5 P  1.93813500E-01  1.000000

  6 D  8.00000000E-01  1.000000

  c (Carbon)
  ----------
            Exponent  Coefficients 
       -------------- ---------------------------------------------------------
  1 S  2.80806450E+03  0.002018
  1 S  4.21138280E+02  0.015433
  1 S  9.55866160E+01  0.075582
  1 S  2.67390040E+01  0.247828
  1 S  8.43282680E+00  0.479373
  1 S  2.76058210E+00  0.333834

  2 S  5.44700450E+00 -0.077841
  2 S  4.79242200E-01  0.568956

  3 S  1.46156500E-01  1.000000

  4 P  1.81308520E+01  0.015855
  4 P  4.09988320E+00  0.095683
  4 P  1.18583700E+00  0.304912
  4 P  3.68597400E-01  0.493502

  5 P  1.09720000E-01  1.000000

  6 D  6.00000000E-01  1.000000

  fe (Iron)
  ---------
            Exponent  Coefficients 
       -------------- ---------------------------------------------------------
  1 S  6.14302270E+04  0.001756
  1 S  9.22217600E+03  0.013417
  1 S  2.09759690E+03  0.066695
  1 S  5.91490400E+02  0.228205
  1 S  1.91860620E+02  0.469450
  1 S  6.58263280E+01  0.363557

  2 S  1.28740740E+02 -0.104917
  2 S  1.47181330E+01  0.617962
  2 S  5.95075430E+00  0.456009

  3 S  1.08598790E+01  0.218492
  3 S  1.71944710E+00 -0.711331
  3 S  6.66453200E-01 -0.418695

  4 S  9.75476100E-01 -0.144105
  4 S  1.23114300E-01  0.595813

  5 S  4.48795000E-02  1.000000

  6 P  7.80620300E+02 -0.009122
  6 P  1.84006220E+02 -0.068004
  6 P  5.80844670E+01 -0.259768
  6 P  2.07597950E+01 -0.506014
  6 P  7.59345150E+00 -0.341908

  7 P  4.02791730E+00 -0.327296
  7 P  1.52647000E+00 -0.548150
  7 P  5.57370200E-01 -0.250663

  8 P  1.21000000E-01  1.000000

  9 D  2.39293160E+01 -0.063492
  9 D  6.39990130E+00 -0.278391
  9 D  1.93174170E+00 -0.493820
  9 D  5.11527900E-01 -0.486269

 10 D  9.00000000E-02  1.000000



 Summary of "ao basis" -> "" (cartesian)
 ------------------------------------------------------------------------------
       Tag                 Description            Shells   Functions and Types
 ---------------- ------------------------------  ------  ---------------------
 o                     DZVP (DFT Orbital)            6       15   3s2p1d
 c                     DZVP (DFT Orbital)            6       15   3s2p1d
 fe                    DZVP (DFT Orbital)           10       26   5s3p2d


  library name resolved from: environment
  library file name is: </opt/science/nwchem/current/src/basis/libraries/>
  
                      Basis "cd basis" -> "" (cartesian)
                      -----
  o (Oxygen)
  ----------
            Exponent  Coefficients 
       -------------- ---------------------------------------------------------
  1 S  2.00000000E+03  1.000000

  2 S  4.00000000E+02  1.000000

  3 S  1.00000000E+02  1.000000

  4 S  2.50000000E+01  1.000000

  5 S  7.80000000E+00  1.000000

  6 P  7.80000000E+00  1.000000

  7 S  1.56000000E+00  1.000000

  8 P  1.56000000E+00  1.000000

  9 S  3.90000000E-01  1.000000

 10 P  3.90000000E-01  1.000000

 11 D  7.80000000E+00  1.000000

 12 D  1.56000000E+00  1.000000

 13 D  3.90000000E-01  1.000000

  c (Carbon)
  ----------
            Exponent  Coefficients 
       -------------- ---------------------------------------------------------
  1 S  1.11400000E+03  1.000000

  2 S  2.23000000E+02  1.000000

  3 S  5.57200000E+01  1.000000

  4 S  1.39000000E+01  1.000000

  5 S  4.40000000E+00  1.000000

  6 P  4.40000000E+00  1.000000

  7 S  8.70000000E-01  1.000000

  8 P  8.70000000E-01  1.000000

  9 S  2.20000000E-01  1.000000

 10 P  2.20000000E-01  1.000000

 11 D  4.40000000E+00  1.000000

 12 D  8.70000000E-01  1.000000

 13 D  2.20000000E-01  1.000000

  fe (Iron)
  ---------
            Exponent  Coefficients 
       -------------- ---------------------------------------------------------
  1 S  4.40000000E+04  1.000000

  2 S  8.80000000E+03  1.000000

  3 S  2.20000000E+03  1.000000

  4 S  5.50000000E+02  1.000000

  5 S  1.37000000E+02  1.000000

  6 S  4.32000000E+01  1.000000

  7 P  4.32000000E+01  1.000000

  8 S  8.60000000E+00  1.000000

  9 P  8.60000000E+00  1.000000

 10 S  2.20000000E+00  1.000000

 11 P  2.20000000E+00  1.000000

 12 S  5.40000000E-01  1.000000

 13 P  5.40000000E-01  1.000000

 14 S  1.35000000E-01  1.000000

 15 P  1.35000000E-01  1.000000

 16 D  4.32000000E+01  1.000000

 17 D  8.60000000E+00  1.000000

 18 D  2.20000000E+00  1.000000

 19 D  5.40000000E-01  1.000000

 20 D  1.35000000E-01  1.000000



 Summary of "cd basis" -> "" (cartesian)
 ------------------------------------------------------------------------------
       Tag                 Description            Shells   Functions and Types
 ---------------- ------------------------------  ------  ---------------------
 o                DGauss A1 DFT Coulomb Fitting     13       34   7s3p3d
 c                DGauss A1 DFT Coulomb Fitting     13       34   7s3p3d
 fe               DGauss A1 DFT Coulomb Fitting     20       55   10s5p5d


  library name resolved from: environment
  library file name is: </opt/science/nwchem/current/src/basis/libraries/>
  
                      Basis "xc basis" -> "" (cartesian)
                      -----
  o (Oxygen)
  ----------
            Exponent  Coefficients 
       -------------- ---------------------------------------------------------
  1 S  6.67000000E+02  1.000000

  2 S  1.33000000E+02  1.000000

  3 S  3.33000000E+01  1.000000

  4 S  8.30000000E+00  1.000000

  5 S  2.60000000E+00  1.000000

  6 P  2.60000000E+00  1.000000

  7 S  5.20000000E-01  1.000000

  8 P  5.20000000E-01  1.000000

  9 S  1.30000000E-01  1.000000

 10 P  1.30000000E-01  1.000000

 11 D  2.60000000E+00  1.000000

 12 D  5.20000000E-01  1.000000

 13 D  1.30000000E-01  1.000000

  c (Carbon)
  ----------
            Exponent  Coefficients 
       -------------- ---------------------------------------------------------
  1 S  3.71000000E+02  1.000000

  2 S  7.42000000E+01  1.000000

  3 S  1.86000000E+01  1.000000

  4 S  4.64000000E+00  1.000000

  5 S  1.47000000E+00  1.000000

  6 P  1.47000000E+00  1.000000

  7 S  2.90000000E-01  1.000000

  8 P  2.90000000E-01  1.000000

  9 S  7.30000000E-02  1.000000

 10 P  7.30000000E-02  1.000000

 11 D  1.47000000E+00  1.000000

 12 D  2.90000000E-01  1.000000

 13 D  7.30000000E-02  1.000000

  fe (Iron)
  ---------
            Exponent  Coefficients 
       -------------- ---------------------------------------------------------
  1 S  1.47000000E+04  1.000000

  2 S  2.93000000E+03  1.000000

  3 S  7.30000000E+02  1.000000

  4 S  1.80000000E+02  1.000000

  5 S  4.60000000E+01  1.000000

  6 S  1.44000000E+01  1.000000

  7 P  1.44000000E+01  1.000000

  8 S  2.90000000E+00  1.000000

  9 P  2.90000000E+00  1.000000

 10 S  7.20000000E-01  1.000000

 11 P  7.20000000E-01  1.000000

 12 S  1.80000000E-01  1.000000

 13 P  1.80000000E-01  1.000000

 14 S  4.50000000E-02  1.000000

 15 P  4.50000000E-02  1.000000

 16 D  1.44000000E+01  1.000000

 17 D  2.90000000E+00  1.000000

 18 D  7.20000000E-01  1.000000

 19 D  1.80000000E-01  1.000000

 20 D  4.50000000E-02  1.000000



 Summary of "xc basis" -> "" (cartesian)
 ------------------------------------------------------------------------------
       Tag                 Description            Shells   Functions and Types
 ---------------- ------------------------------  ------  ---------------------
 o                DGauss A1 DFT Exchange Fitting    13       34   7s3p3d
 c                DGauss A1 DFT Exchange Fitting    13       34   7s3p3d
 fe               DGauss A1 DFT Exchange Fitting    20       55   10s5p5d



                                 NWChem DFT Module
                                 -----------------




 Summary of "ao basis" -> "ao basis" (cartesian)
 ------------------------------------------------------------------------------
       Tag                 Description            Shells   Functions and Types
 ---------------- ------------------------------  ------  ---------------------
 o                     DZVP (DFT Orbital)            6       15   3s2p1d
 c                     DZVP (DFT Orbital)            6       15   3s2p1d
 fe                    DZVP (DFT Orbital)           10       26   5s3p2d


      Symmetry analysis of basis
      --------------------------

        a1'        39
        a1"         2
        a2'         6
        a2"        23
        e'         70
        e"         36

  Caching 1-el integrals 
  Rotation of axis 

            General Information
            -------------------
          SCF calculation type: DFT
          Wavefunction type:  closed shell.
          No. of atoms     :    11
          No. of electrons :    96
           Alpha electrons :    48
            Beta electrons :    48
          Charge           :     0
          Spin multiplicity:     1
          Use of symmetry is: on ; symmetry adaption is: on 
          Maximum number of iterations:  30
          AO basis - number of functions:   176
                     number of shells:    70
          A Charge density fitting basis will be used.
          CD basis - number of functions:   395
                     number of shells:   150
          An Exch-Corr fitting basis will be used.
          XC basis - number of functions:   395
                     number of shells:   150
          Convergence on energy requested: 1.00D-06
          Convergence on density requested: 1.00D-05
          Convergence on gradient requested: 5.00D-04

              XC Information
              --------------
          Adiabatic Connection Method XC Potential
                     Hartree-Fock (Exact) Exchange  0.200          
                        Slater Exchange Functional  0.800 local    
                    Becke 1988 Exchange Functional  0.720 non-local
                      VWN V Correlation Functional  1.000 local    
                Perdew 1991 Correlation Functional  0.810 non-local

             Grid Information
             ----------------
          Grid used for XC integration:  medium    
          Radial quadrature: Mura-Knowles        
          Angular quadrature: Lebedev. 
          Tag              B.-S. Rad. Rad. Pts. Rad. Cut. Ang. Pts.
          ---              ---------- --------- --------- ---------
          fe                  1.40      112           8.0       590
          c                   0.70       49          11.0       434
          o                   0.60       49          13.0       434
          Grid pruning is: on 
          Number of quadrature shells:   308
          Spatial weights used:  Erf1

          Convergence Information
          -----------------------
          Convergence aids based upon iterative change in 
          total energy or number of iterations. 
          Levelshifting, if invoked, occurs when the 
          HOMO/LUMO gap drops below (HL_TOL): 1.00D-02
          DIIS, if invoked, will attempt to extrapolate 
          using up to (NFOCK): 10 stored Fock matrices.

                    Damping( 0%)  Levelshifting(0.5)       DIIS
                  --------------- ------------------- ---------------
          dE  on:    start            ASAP                start   
          dE off:    2 iters         30 iters            30 iters 


      Screening Tolerance Information
      -------------------------------
          Density screening/tol_rho: 1.00D-10
          AO Gaussian exp screening on grid/accAOfunc:  14
          CD Gaussian exp screening on grid/accCDfunc:  20
          XC Gaussian exp screening on grid/accXCfunc:  20
          Schwarz screening/accCoul: 1.00D-08


      Superposition of Atomic Density Guess
      -------------------------------------

 Sum of atomic energies:       -1824.13130503

      Non-variational initial energy
      ------------------------------

 Total energy =   -1827.679833
 1-e energy   =   -4099.408592
 2-e energy   =    1473.233141
 HOMO         =      -0.328823
 LUMO         =      -0.090738


      Symmetry analysis of molecular orbitals - initial
      -------------------------------------------------

  Numbering of irreducible representations: 

     1 a1'         2 a1"         3 a2'         4 a2"         5 e'      
     6 e"      

  Orbital symmetries:

     1 a1'         2 a1'         3 a2"         4 e'          5 e'      
     6 a1'         7 a2"         8 a1'         9 e'         10 e'      
    11 a1'        12 a2"        13 a1'        14 e'         15 e'      
    16 a1'        17 a2"        18 e'         19 e'         20 a1'     
    21 a2"        22 e'         23 e'         24 a1'        25 a1'     
    26 e'         27 e'         28 a2"        29 a1'        30 a1'     
    31 e"         32 e"         33 e'         34 e'         35 a2"     
    36 e'         37 e'         38 a2'        39 a1'        40 e"      
    41 e"         42 e'         43 e'         44 a2"        45 e"      
    46 e"         47 e'         48 e'         49 a1'        50 e"      
    51 e"         52 e'         53 e'         54 a2"        55 a2'     
    56 e'         57 e'         58 a1'     

   Time after variat. SCF:      1.6

      3 Center 2 Electron Integral Information
      ----------------------------------------
          Maximum number of 3-center 2e- integrals is:        12235520.
            This is reduced with Schwarz screening to:         5362125.
            Incore requires a per proc buffer size of:         5423101.
                  The minimum integral buffer size is:           14220
          Minimum dble words available (all nodes) is:       128614348
                   This is reduced (for later use) to:       127905479
                             Suggested buffer size is:         5423101

           5.423 MW buffer allocated for incore 3-center 
          2e- integral storage on stack. 
          The percent of 3c 2e- integrals held in-core is: 100.00

   Time prior to 1st pass:      2.3

 Integral file          = ./dft_feco5.aoints.0
 Record size in doubles =    65536    No. of integs per rec  =    43688
 Max. records in memory =      407    Max. records in file   = ********
 No. of bits per label  =        8    No. of bits per value  =       64


 #quartets = 3.964D+05 #integrals = 1.125D+07 #direct =  0.0% #cached =100.0%


 Grid_pts file          = ./dft_feco5.gridpts.0
 Record size in doubles =  12289        No. of grid_pts per rec  =   3070
 Max. records in memory =     67        Max. recs in file   = *********


           Memory utilization after 1st SCF pass: 
           Heap Space remaining (MW):       36.80            36801316
          Stack Space remaining (MW):       58.89            58888004

   convergence    iter        energy       DeltaE   RMS-Dens  Diis-err    time
 ---------------- ----- ----------------- --------- --------- ---------  ------
 d= 0,ls=0.0,diis     1  -1829.3286866396 -2.63D+03  5.83D-02  7.94D+00     6.1
 d= 0,ls=0.0,diis     2  -1819.4141607758  9.91D+00  6.58D-02  6.31D+01     6.9
 d= 0,ls=0.0,diis     3  -1827.5706779609 -8.16D+00  6.86D-03  2.57D+01     7.8
 d= 0,ls=0.0,diis     4  -1828.8978012275 -1.33D+00  1.50D-03  1.27D+01     8.7
 d= 0,ls=0.0,diis     5  -1828.7331389616  1.65D-01  1.70D-03  1.43D+01     9.6
 d= 0,ls=0.0,diis     6  -1828.9029444369 -1.70D-01  2.72D-03  1.28D+01    10.4
  Resetting Diis
 d= 0,ls=0.0,diis     7  -1828.9282997632 -2.54D-02  1.90D-03  1.25D+01    11.3
 d= 0,ls=0.0,diis     8  -1828.8913858771  3.69D-02  7.38D-02  1.27D+01    12.2
 d= 0,ls=0.0,diis     9  -1814.6922453143  1.42D+01  6.74D-02  9.31D+01    13.1
 d= 0,ls=0.0,diis    10  -1829.8640847986 -1.52D+01  1.33D-02  2.61D+00    14.0
 d= 0,ls=0.0,diis    11  -1829.4442948629  4.20D-01  8.76D-03  7.40D+00    14.9
 d= 0,ls=0.0,diis    12  -1830.0281365514 -5.84D-01  2.49D-03  9.49D-01    15.8
 d= 0,ls=0.0,diis    13  -1830.0584052888 -3.03D-02  1.70D-03  5.84D-01    16.7
 d= 0,ls=0.0,diis    14  -1830.0774044396 -1.90D-02  9.09D-04  3.52D-01    17.5
 d= 0,ls=0.0,diis    15  -1830.0877639835 -1.04D-02  1.77D-03  2.28D-01    18.4
 d= 0,ls=0.0,diis    16  -1830.1054571026 -1.77D-02  3.92D-04  4.59D-03    19.3
 d= 0,ls=0.0,diis    17  -1830.1056640043 -2.07D-04  4.14D-05  3.09D-05    20.2
 d= 0,ls=0.0,diis    18  -1830.1056313407  3.27D-05  1.31D-05  7.22D-06    21.1
 d= 0,ls=0.0,diis    19  -1830.1056195126  1.18D-05  4.70D-06  1.79D-06    22.0
 d= 0,ls=0.0,diis    20  -1830.1056180036  1.51D-06  1.09D-06  7.11D-08    22.9
 d= 0,ls=0.0,diis    21  -1830.1056175119  4.92D-07  6.26D-08  1.47D-10    23.8


         Total DFT energy =    -1830.105617511867
      One electron energy =    -4106.740258988375
           Coulomb energy =     1602.924501921790
    Exchange-Corr. energy =     -124.785478539472
 Nuclear repulsion energy =      798.495618094190

 Numeric. integr. density =       95.999997111454

     Total iterative time =     21.5s



                  Occupations of the irreducible representations
                  ----------------------------------------------

                     irrep           alpha         beta
                     --------     --------     --------
                     a1'              13.0         13.0
                     a1"               0.0          0.0
                     a2'               1.0          1.0
                     a2"               8.0          8.0
                     e'               20.0         20.0
                     e"                6.0          6.0


                       DFT Final Molecular Orbital Analysis
                       ------------------------------------

 Vector   19  Occ=2.000000D+00  E=-2.263374D+00  Symmetry=e'
              MO Center=  2.2D-03, -1.5D-03,  2.5D-19, r^2= 2.5D-01
   Bfn.  Coefficient  Atom+Function         Bfn.  Coefficient  Atom+Function  
  ----- ------------  ---------------      ----- ------------  ---------------
    10      1.070340   1 Fe py                7     -0.402995   1 Fe py        

 Vector   20  Occ=2.000000D+00  E=-1.173045D+00  Symmetry=a1'
              MO Center= -1.5D-18, -4.0D-18,  1.5D-16, r^2= 7.3D+00
   Bfn.  Coefficient  Atom+Function         Bfn.  Coefficient  Atom+Function  
  ----- ------------  ---------------      ----- ------------  ---------------
    58      0.322799   4 O  s                73      0.322799   5 O  s         
    59     -0.201261   4 O  s                74     -0.201261   5 O  s         
    28     -0.164869   2 C  s                43     -0.164869   3 C  s         
    32     -0.162789   2 C  pz               47      0.162789   3 C  pz        
    57     -0.150159   4 O  s                72     -0.150159   5 O  s         

 Vector   21  Occ=2.000000D+00  E=-1.172876D+00  Symmetry=a2"
              MO Center= -9.4D-20,  2.7D-19, -3.4D-16, r^2= 7.3D+00
   Bfn.  Coefficient  Atom+Function         Bfn.  Coefficient  Atom+Function  
  ----- ------------  ---------------      ----- ------------  ---------------
    58      0.326006   4 O  s                73     -0.326006   5 O  s         
    59     -0.191822   4 O  s                74      0.191822   5 O  s         
    28     -0.166787   2 C  s                43      0.166787   3 C  s         
    32     -0.163397   2 C  pz               47     -0.163397   3 C  pz        
    57     -0.150388   4 O  s                72      0.150388   5 O  s         

 Vector   22  Occ=2.000000D+00  E=-1.161456D+00  Symmetry=a1'
              MO Center= -1.4D-11,  1.0D-11, -5.4D-16, r^2= 7.4D+00
   Bfn.  Coefficient  Atom+Function         Bfn.  Coefficient  Atom+Function  
  ----- ------------  ---------------      ----- ------------  ---------------
   133      0.265638   9 O  s               148      0.265638  10 O  s         
   163      0.265638  11 O  s               134     -0.153604   9 O  s         
   149     -0.153604  10 O  s               164     -0.153604  11 O  s         

 Vector   23  Occ=2.000000D+00  E=-1.161383D+00  Symmetry=e'
              MO Center=  1.0D-01,  1.3D+00,  3.8D-20, r^2= 5.7D+00
   Bfn.  Coefficient  Atom+Function         Bfn.  Coefficient  Atom+Function  
  ----- ------------  ---------------      ----- ------------  ---------------
   133      0.351477   9 O  s               148     -0.288539  10 O  s         
   134     -0.218634   9 O  s                88     -0.179502   6 C  s         
   149      0.179484  10 O  s               132     -0.163351   9 O  s         

 Vector   24  Occ=2.000000D+00  E=-1.161383D+00  Symmetry=e'
              MO Center= -1.0D-01, -1.3D+00,  1.4D-16, r^2= 5.7D+00
   Bfn.  Coefficient  Atom+Function         Bfn.  Coefficient  Atom+Function  
  ----- ------------  ---------------      ----- ------------  ---------------
   163      0.369513  11 O  s               148     -0.239262  10 O  s         
   164     -0.229854  11 O  s               118     -0.188713   8 C  s         
   121      0.180087   8 C  py              162     -0.171734  11 O  s         
   166     -0.154266  11 O  py        

 Vector   25  Occ=2.000000D+00  E=-6.407665D-01  Symmetry=a1'
              MO Center=  4.3D-15,  6.0D-15,  7.9D-15, r^2= 5.0D+00
   Bfn.  Coefficient  Atom+Function         Bfn.  Coefficient  Atom+Function  
  ----- ------------  ---------------      ----- ------------  ---------------
     3      0.250495   1 Fe s                28      0.221319   2 C  s         
    43      0.221319   3 C  s                29      0.204718   2 C  s         
    44      0.204718   3 C  s                59     -0.157207   4 O  s         
    74     -0.157207   5 O  s         

 Vector   26  Occ=2.000000D+00  E=-5.982024D-01  Symmetry=a2"
              MO Center= -2.8D-16, -1.5D-15,  8.4D-14, r^2= 8.3D+00
   Bfn.  Coefficient  Atom+Function         Bfn.  Coefficient  Atom+Function  
  ----- ------------  ---------------      ----- ------------  ---------------
    62      0.326884   4 O  pz               77      0.326884   5 O  pz        
    28     -0.267709   2 C  s                43      0.267709   3 C  s         
    59      0.255675   4 O  s                74     -0.255675   5 O  s         
    58     -0.202867   4 O  s                73      0.202867   5 O  s         
    29     -0.161203   2 C  s                44      0.161203   3 C  s         

 Vector   27  Occ=2.000000D+00  E=-5.884986D-01  Symmetry=e'
              MO Center= -1.3D+00, -2.5D-01, -3.3D-15, r^2= 6.5D+00
   Bfn.  Coefficient  Atom+Function         Bfn.  Coefficient  Atom+Function  
  ----- ------------  ---------------      ----- ------------  ---------------
   150      0.354033  10 O  px              103      0.305728   7 C  s         
   149     -0.266565  10 O  s               166     -0.248530  11 O  py        
   148      0.227249  10 O  s               118     -0.214467   8 C  s         
   164      0.186995  11 O  s               163     -0.159414  11 O  s         
   104      0.156667   7 C  s         

 Vector   28  Occ=2.000000D+00  E=-5.884986D-01  Symmetry=e'
              MO Center=  1.3D+00,  2.5D-01,  1.3D-15, r^2= 6.5D+00
   Bfn.  Coefficient  Atom+Function         Bfn.  Coefficient  Atom+Function  
  ----- ------------  ---------------      ----- ------------  ---------------
    88      0.300335   6 C  s               166     -0.265151  11 O  py        
   134     -0.261863   9 O  s               135     -0.254794   9 O  px        
   136     -0.254301   9 O  py              118     -0.229202   8 C  s         
   133      0.223240   9 O  s               164      0.199842  11 O  s         
    16     -0.174348   1 Fe dxy             163     -0.170366  11 O  s         

 Vector   29  Occ=2.000000D+00  E=-5.847425D-01  Symmetry=a1'
              MO Center=  5.9D-14,  2.2D-14, -8.7D-14, r^2= 8.7D+00
   Bfn.  Coefficient  Atom+Function         Bfn.  Coefficient  Atom+Function  
  ----- ------------  ---------------      ----- ------------  ---------------
    62      0.243931   4 O  pz               77     -0.243931   5 O  pz        
   150      0.201738  10 O  px              166      0.201738  11 O  py        
    59      0.181111   4 O  s                74      0.181111   5 O  s         
    29     -0.172428   2 C  s                44     -0.172428   3 C  s         
    28     -0.163669   2 C  s                43     -0.163669   3 C  s         

 Vector   30  Occ=2.000000D+00  E=-5.278852D-01  Symmetry=a1'
              MO Center= -1.8D-14, -4.5D-14, -8.9D-14, r^2= 7.7D+00
   Bfn.  Coefficient  Atom+Function         Bfn.  Coefficient  Atom+Function  
  ----- ------------  ---------------      ----- ------------  ---------------
    62      0.301199   4 O  pz               77     -0.301199   5 O  pz        
    32     -0.255654   2 C  pz               47      0.255654   3 C  pz        
   150     -0.205952  10 O  px              166     -0.205952  11 O  py        
     3      0.192976   1 Fe s               135      0.150767   9 O  px        
   136      0.150767   9 O  py        

 Vector   31  Occ=2.000000D+00  E=-5.037783D-01  Symmetry=e"
              MO Center= -1.9D-01,  3.3D-01,  3.2D-13, r^2= 6.7D+00
   Bfn.  Coefficient  Atom+Function         Bfn.  Coefficient  Atom+Function  
  ----- ------------  ---------------      ----- ------------  ---------------
    60     -0.327102   4 O  px               75      0.327102   5 O  px        
    17      0.309795   1 Fe dxz              30     -0.245876   2 C  px        
    45      0.245876   3 C  px              152      0.232637  10 O  pz        
   137     -0.200637   9 O  pz              107      0.186336   7 C  pz        
    92     -0.160704   6 C  pz        

 Vector   32  Occ=2.000000D+00  E=-5.037783D-01  Symmetry=e"
              MO Center=  1.9D-01, -3.3D-01,  3.9D-13, r^2= 6.7D+00
   Bfn.  Coefficient  Atom+Function         Bfn.  Coefficient  Atom+Function  
  ----- ------------  ---------------      ----- ------------  ---------------
    61     -0.327102   4 O  py               76      0.327102   5 O  py        
    19      0.309795   1 Fe dyz             167      0.250151  11 O  pz        
    31     -0.245876   2 C  py               46      0.245876   3 C  py        
   122      0.200364   8 C  pz              137     -0.152789   9 O  pz        

 Vector   33  Occ=2.000000D+00  E=-4.967800D-01  Symmetry=e'
              MO Center=  1.9D-01, -5.8D-02, -2.7D-13, r^2= 7.1D+00
   Bfn.  Coefficient  Atom+Function         Bfn.  Coefficient  Atom+Function  
  ----- ------------  ---------------      ----- ------------  ---------------
    61      0.355022   4 O  py               76      0.355022   5 O  py        
    31      0.246627   2 C  py               46      0.246627   3 C  py        
   166      0.174988  11 O  py              121     -0.153912   8 C  py        

 Vector   34  Occ=2.000000D+00  E=-4.967800D-01  Symmetry=e'
              MO Center= -1.9D-01,  5.8D-02, -4.6D-13, r^2= 7.1D+00
   Bfn.  Coefficient  Atom+Function         Bfn.  Coefficient  Atom+Function  
  ----- ------------  ---------------      ----- ------------  ---------------
    60      0.355022   4 O  px               75      0.355022   5 O  px        
    30      0.246627   2 C  px               45      0.246627   3 C  px        
   150      0.189398  10 O  px              105     -0.183030   7 C  px        

 Vector   35  Occ=2.000000D+00  E=-4.958313D-01  Symmetry=a2"
              MO Center= -9.1D-14,  1.2D-13,  8.8D-14, r^2= 6.7D+00
   Bfn.  Coefficient  Atom+Function         Bfn.  Coefficient  Atom+Function  
  ----- ------------  ---------------      ----- ------------  ---------------
   137      0.262461   9 O  pz              152      0.262461  10 O  pz        
   167      0.262461  11 O  pz               32     -0.215713   2 C  pz        
    47     -0.215713   3 C  pz               62      0.212082   4 O  pz        
    77      0.212082   5 O  pz               14      0.204871   1 Fe pz        
    92      0.195676   6 C  pz              107      0.195676   7 C  pz        

 Vector   36  Occ=2.000000D+00  E=-4.809682D-01  Symmetry=e'
              MO Center=  8.4D-01,  7.0D-01, -3.3D-15, r^2= 6.0D+00
   Bfn.  Coefficient  Atom+Function         Bfn.  Coefficient  Atom+Function  
  ----- ------------  ---------------      ----- ------------  ---------------
   136     -0.337844   9 O  py              135      0.332602   9 O  px        
    90      0.229332   6 C  px              165      0.229677  11 O  px        
    91     -0.222754   6 C  py              151     -0.192178  10 O  py        
   120      0.188738   8 C  px              106     -0.165304   7 C  py        
    15     -0.150474   1 Fe dxx              18      0.150474   1 Fe dyy       

 Vector   37  Occ=2.000000D+00  E=-4.809682D-01  Symmetry=e'
              MO Center= -8.4D-01, -7.0D-01, -1.2D-15, r^2= 6.0D+00
   Bfn.  Coefficient  Atom+Function         Bfn.  Coefficient  Atom+Function  
  ----- ------------  ---------------      ----- ------------  ---------------
   151      0.416702  10 O  py              165      0.397268  11 O  px        
    16      0.300948   1 Fe dxy             106      0.262502   7 C  py        
   120      0.246191   8 C  px              154      0.161150  10 O  py        
   168      0.153462  11 O  px        

 Vector   38  Occ=2.000000D+00  E=-4.731192D-01  Symmetry=a2'
              MO Center=  9.7D-15,  1.0D-14, -1.3D-29, r^2= 7.9D+00
   Bfn.  Coefficient  Atom+Function         Bfn.  Coefficient  Atom+Function  
  ----- ------------  ---------------      ----- ------------  ---------------
   151      0.353865  10 O  py              165     -0.353865  11 O  px        
   135      0.259047   9 O  px              136     -0.259047   9 O  py        
   106      0.217557   7 C  py              120     -0.217557   8 C  px        
    90      0.159263   6 C  px               91     -0.159263   6 C  py        

 Vector   39  Occ=2.000000D+00  E=-4.713598D-01  Symmetry=e"
              MO Center= -1.9D-01,  8.7D-01, -9.0D-15, r^2= 7.2D+00
   Bfn.  Coefficient  Atom+Function         Bfn.  Coefficient  Atom+Function  
  ----- ------------  ---------------      ----- ------------  ---------------
   137      0.375299   9 O  pz              152     -0.365442  10 O  pz        
    60     -0.258831   4 O  px               75      0.258831   5 O  px        
    92      0.227750   6 C  pz              107     -0.221768   7 C  pz        

 Vector   40  Occ=2.000000D+00  E=-4.713598D-01  Symmetry=e"
              MO Center=  1.9D-01, -8.7D-01,  1.5D-14, r^2= 7.2D+00
   Bfn.  Coefficient  Atom+Function         Bfn.  Coefficient  Atom+Function  
  ----- ------------  ---------------      ----- ------------  ---------------
   167      0.427667  11 O  pz               61      0.258831   4 O  py        
    76     -0.258831   5 O  py              122      0.259529   8 C  pz        
   152     -0.222370  10 O  pz              137     -0.205297   9 O  pz        
   170      0.163101  11 O  pz        

 Vector   41  Occ=2.000000D+00  E=-4.706165D-01  Symmetry=a1'
              MO Center=  1.1D-15, -5.1D-15, -1.3D-16, r^2= 3.5D+00
   Bfn.  Coefficient  Atom+Function         Bfn.  Coefficient  Atom+Function  
  ----- ------------  ---------------      ----- ------------  ---------------
    20      0.461365   1 Fe dzz              15     -0.231252   1 Fe dxx       
    18     -0.231252   1 Fe dyy             105      0.216479   7 C  px        
   121      0.216479   8 C  py               32      0.206790   2 C  pz        
    47     -0.206790   3 C  pz              150     -0.167528  10 O  px        
   166     -0.167528  11 O  py               90     -0.158474   6 C  px        

 Vector   42  Occ=2.000000D+00  E=-4.558135D-01  Symmetry=e'
              MO Center=  2.5D-01,  3.9D-01,  1.3D-14, r^2= 5.1D+00
   Bfn.  Coefficient  Atom+Function         Bfn.  Coefficient  Atom+Function  
  ----- ------------  ---------------      ----- ------------  ---------------
    16      0.487243   1 Fe dxy              91      0.247604   6 C  py        
    90      0.239306   6 C  px               60      0.194378   4 O  px        
    75      0.194378   5 O  px              135     -0.191426   9 O  px        
   105      0.187483   7 C  px               88     -0.179781   6 C  s         
   150     -0.173499  10 O  px              136     -0.172446   9 O  py        

 Vector   43  Occ=2.000000D+00  E=-4.558135D-01  Symmetry=e'
              MO Center= -2.5D-01, -3.9D-01,  1.1D-14, r^2= 5.1D+00
   Bfn.  Coefficient  Atom+Function         Bfn.  Coefficient  Atom+Function  
  ----- ------------  ---------------      ----- ------------  ---------------
   121      0.312079   8 C  py              105     -0.277524   7 C  px        
    15      0.243621   1 Fe dxx              18     -0.243621   1 Fe dyy       
   166     -0.216602  11 O  py               61      0.194378   4 O  py        
    76      0.194378   5 O  py              150      0.182796  10 O  px        
   118      0.165746   8 C  s                60     -0.155282   4 O  px        

 Vector   44  Occ=2.000000D+00  E=-4.390638D-01  Symmetry=a2"
              MO Center=  1.5D-14,  4.5D-15, -3.0D-15, r^2= 5.9D+00
   Bfn.  Coefficient  Atom+Function         Bfn.  Coefficient  Atom+Function  
  ----- ------------  ---------------      ----- ------------  ---------------
    32      0.297681   2 C  pz               47      0.297681   3 C  pz        
   137      0.257650   9 O  pz              152      0.257650  10 O  pz        
   167      0.257650  11 O  pz               14     -0.224086   1 Fe pz        
    62     -0.210404   4 O  pz               77     -0.210404   5 O  pz        
    11     -0.175939   1 Fe pz               28     -0.173711   2 C  s         

 Vector   45  Occ=2.000000D+00  E=-3.196141D-01  Symmetry=e"
              MO Center=  1.1D-01,  7.4D-02, -2.5D-15, r^2= 2.4D+00
   Bfn.  Coefficient  Atom+Function         Bfn.  Coefficient  Atom+Function  
  ----- ------------  ---------------      ----- ------------  ---------------
    19      1.076828   1 Fe dyz              17      0.882600   1 Fe dxz       
    25     -0.318954   1 Fe dyz              23     -0.261424   1 Fe dxz       
   137      0.185561   9 O  pz        

 Vector   46  Occ=2.000000D+00  E=-3.196141D-01  Symmetry=e"
              MO Center= -1.1D-01, -7.4D-02, -6.1D-17, r^2= 2.4D+00
   Bfn.  Coefficient  Atom+Function         Bfn.  Coefficient  Atom+Function  
  ----- ------------  ---------------      ----- ------------  ---------------
    17      1.076828   1 Fe dxz              19     -0.882600   1 Fe dyz       
    23     -0.318954   1 Fe dxz              25      0.261424   1 Fe dyz       
   152     -0.169897  10 O  pz              167      0.151503  11 O  pz        

 Vector   47  Occ=2.000000D+00  E=-2.612718D-01  Symmetry=e'
              MO Center=  2.0D-01,  3.2D-01,  2.7D-17, r^2= 2.7D+00
   Bfn.  Coefficient  Atom+Function         Bfn.  Coefficient  Atom+Function  
  ----- ------------  ---------------      ----- ------------  ---------------
    15      0.598135   1 Fe dxx              18     -0.598135   1 Fe dyy       
    13      0.317708   1 Fe py               12     -0.251481   1 Fe px        
   135      0.175488   9 O  px              136     -0.162700   9 O  py        

 Vector   48  Occ=2.000000D+00  E=-2.612718D-01  Symmetry=e'
              MO Center= -2.0D-01, -3.2D-01, -1.3D-15, r^2= 2.7D+00
   Bfn.  Coefficient  Atom+Function         Bfn.  Coefficient  Atom+Function  
  ----- ------------  ---------------      ----- ------------  ---------------
    16      1.196270   1 Fe dxy              12      0.317708   1 Fe px        
    13      0.251481   1 Fe py              165     -0.221509  11 O  px        
   151     -0.198686  10 O  py               22     -0.157866   1 Fe dxy       
   120      0.150963   8 C  px        

 Vector   49  Occ=0.000000D+00  E=-5.813777D-02  Symmetry=e"
              MO Center= -2.8D-01,  2.8D-01,  1.1D-14, r^2= 4.5D+00
   Bfn.  Coefficient  Atom+Function         Bfn.  Coefficient  Atom+Function  
  ----- ------------  ---------------      ----- ------------  ---------------
    17      0.963585   1 Fe dxz             107     -0.302610   7 C  pz        
    30      0.282353   2 C  px               45     -0.282353   3 C  px        
   152      0.245122  10 O  pz              110     -0.228343   7 C  pz        
    60     -0.223260   4 O  px               75      0.223260   5 O  px        
    92      0.222545   6 C  pz              155      0.189331  10 O  pz        

 Vector   50  Occ=0.000000D+00  E=-5.813777D-02  Symmetry=e"
              MO Center=  2.8D-01, -2.8D-01,  4.1D-14, r^2= 4.5D+00
   Bfn.  Coefficient  Atom+Function         Bfn.  Coefficient  Atom+Function  
  ----- ------------  ---------------      ----- ------------  ---------------
    19      0.963585   1 Fe dyz             122     -0.303199   8 C  pz        
    31      0.282353   2 C  py               46     -0.282353   3 C  py        
   167      0.245598  11 O  pz              125     -0.228787   8 C  pz        
    61     -0.223260   4 O  py               76      0.223260   5 O  py        
    92      0.220938   6 C  pz              170      0.189699  11 O  pz        

 Vector   51  Occ=0.000000D+00  E=-4.798390D-02  Symmetry=e'
              MO Center= -5.2D-02,  1.4D-02, -1.1D-14, r^2= 5.2D+00
   Bfn.  Coefficient  Atom+Function         Bfn.  Coefficient  Atom+Function  
  ----- ------------  ---------------      ----- ------------  ---------------
   104      0.486092   7 C  s                30      0.472531   2 C  px        
    45      0.472531   3 C  px               33      0.338574   2 C  px        
    48      0.338574   3 C  px               60     -0.309954   4 O  px        
    75     -0.309954   5 O  px               63     -0.260674   4 O  px        
    78     -0.260674   5 O  px              119     -0.244445   8 C  s         

 Vector   52  Occ=0.000000D+00  E=-4.798390D-02  Symmetry=e'
              MO Center=  5.2D-02, -1.4D-02, -4.1D-14, r^2= 5.2D+00
   Bfn.  Coefficient  Atom+Function         Bfn.  Coefficient  Atom+Function  
  ----- ------------  ---------------      ----- ------------  ---------------
    31      0.472531   2 C  py               46      0.472531   3 C  py        
    16     -0.421543   1 Fe dxy              89     -0.421776   6 C  s         
   119      0.420160   8 C  s                34      0.338574   2 C  py        
    49      0.338574   3 C  py               61     -0.309954   4 O  py        
    76     -0.309954   5 O  py               22      0.269316   1 Fe dxy       

 Vector   53  Occ=0.000000D+00  E=-4.229913D-02  Symmetry=a2"
              MO Center= -7.7D-15, -1.3D-14, -6.9D-17, r^2= 5.6D+00
   Bfn.  Coefficient  Atom+Function         Bfn.  Coefficient  Atom+Function  
  ----- ------------  ---------------      ----- ------------  ---------------
    29      0.421371   2 C  s                44     -0.421371   3 C  s         
    92     -0.395299   6 C  pz              107     -0.395299   7 C  pz        
   122     -0.395299   8 C  pz               95     -0.297392   6 C  pz        
   110     -0.297392   7 C  pz              125     -0.297392   8 C  pz        
    14     -0.283481   1 Fe pz              137      0.270818   9 O  pz        

 Vector   54  Occ=0.000000D+00  E=-3.767607D-02  Symmetry=a2'
              MO Center= -1.8D-14, -3.6D-15,  1.4D-18, r^2= 5.7D+00
   Bfn.  Coefficient  Atom+Function         Bfn.  Coefficient  Atom+Function  
  ----- ------------  ---------------      ----- ------------  ---------------
   106      0.421227   7 C  py              120     -0.421227   8 C  px        
    90      0.308359   6 C  px               91     -0.308359   6 C  py        
   109      0.309370   7 C  py              123     -0.309370   8 C  px        
   151     -0.271941  10 O  py              165      0.271941  11 O  px        
   154     -0.232770  10 O  py              168      0.232770  11 O  px        

 Vector   55  Occ=0.000000D+00  E=-3.734867D-02  Symmetry=a1'
              MO Center= -3.0D-15, -1.1D-14, -1.7D-17, r^2= 2.1D+00
   Bfn.  Coefficient  Atom+Function         Bfn.  Coefficient  Atom+Function  
  ----- ------------  ---------------      ----- ------------  ---------------
    20      0.869532   1 Fe dzz              15     -0.421930   1 Fe dxx       
    18     -0.421930   1 Fe dyy              29      0.235573   2 C  s         
    44      0.235573   3 C  s                89     -0.228001   6 C  s         
   104     -0.228001   7 C  s               119     -0.228001   8 C  s         
    26      0.176895   1 Fe dzz              28      0.160290   2 C  s         

 Vector   56  Occ=0.000000D+00  E=-2.766271D-02  Symmetry=e'
              MO Center=  6.3D-01, -1.3D-01,  8.1D-16, r^2= 4.2D+00
   Bfn.  Coefficient  Atom+Function         Bfn.  Coefficient  Atom+Function  
  ----- ------------  ---------------      ----- ------------  ---------------
    16     -0.443698   1 Fe dxy              15      0.408101   1 Fe dxx       
    18     -0.408101   1 Fe dyy             120      0.398727   8 C  px        
    90      0.313095   6 C  px              165     -0.280792  11 O  px        
    91     -0.277518   6 C  py              123      0.265448   8 C  px        
   135     -0.226582   9 O  px              168     -0.220988  11 O  px        

 Vector   57  Occ=0.000000D+00  E=-2.766271D-02  Symmetry=e'
              MO Center= -6.3D-01,  1.3D-01, -2.2D-16, r^2= 4.2D+00
   Bfn.  Coefficient  Atom+Function         Bfn.  Coefficient  Atom+Function  
  ----- ------------  ---------------      ----- ------------  ---------------
    16      0.816202   1 Fe dxy             106     -0.458647   7 C  py        
   151      0.318725  10 O  py              109     -0.313296   7 C  py        
   154      0.251784  10 O  py              120     -0.228078   8 C  px        
    15      0.221849   1 Fe dxx              18     -0.221849   1 Fe dyy       
    91     -0.193255   6 C  py              123     -0.166473   8 C  px        

 Vector   58  Occ=0.000000D+00  E= 4.415582D-03  Symmetry=e"
              MO Center=  5.2D-01, -1.1D-01,  2.8D-16, r^2= 5.3D+00
   Bfn.  Coefficient  Atom+Function         Bfn.  Coefficient  Atom+Function  
  ----- ------------  ---------------      ----- ------------  ---------------
    92      0.439641   6 C  pz               95      0.433987   6 C  pz        
   122     -0.423709   8 C  pz              125     -0.418261   8 C  pz        
    31     -0.391054   2 C  py               46      0.391054   3 C  py        
    34     -0.276748   2 C  py               49      0.276748   3 C  py        
   140     -0.255366   9 O  pz              137     -0.246148   9 O  pz        

 Vector   59  Occ=0.000000D+00  E= 4.415582D-03  Symmetry=e"
              MO Center= -5.2D-01,  1.1D-01, -2.4D-16, r^2= 5.3D+00
   Bfn.  Coefficient  Atom+Function         Bfn.  Coefficient  Atom+Function  
  ----- ------------  ---------------      ----- ------------  ---------------
   107      0.498455   7 C  pz              110      0.492045   7 C  pz        
    30      0.391054   2 C  px               45     -0.391054   3 C  px        
   155     -0.289529  10 O  pz              152     -0.279077  10 O  pz        
    33      0.276748   2 C  px               48     -0.276748   3 C  px        
   122     -0.263025   8 C  pz              125     -0.259642   8 C  pz        

 Vector   60  Occ=0.000000D+00  E= 3.272095D-02  Symmetry=a1'
              MO Center=  3.9D-14,  2.9D-14,  2.6D-14, r^2= 1.1D+01
   Bfn.  Coefficient  Atom+Function         Bfn.  Coefficient  Atom+Function  
  ----- ------------  ---------------      ----- ------------  ---------------
     5      3.376343   1 Fe s                 4     -0.751290   1 Fe s         
    21     -0.435702   1 Fe dxx              24     -0.435702   1 Fe dyy       
    29     -0.374762   2 C  s                44     -0.374762   3 C  s         
    26     -0.321076   1 Fe dzz              89     -0.275031   6 C  s         
   104     -0.275031   7 C  s               119     -0.275031   8 C  s         

 Vector   61  Occ=0.000000D+00  E= 1.338210D-01  Symmetry=a2"
              MO Center= -2.5D-15,  2.5D-15,  1.8D-14, r^2= 1.0D+01
   Bfn.  Coefficient  Atom+Function         Bfn.  Coefficient  Atom+Function  
  ----- ------------  ---------------      ----- ------------  ---------------
    35      1.559044   2 C  pz               50      1.559044   3 C  pz        
    59     -1.028019   4 O  s                74      1.028019   5 O  s         
    14      0.788726   1 Fe pz               95      0.423957   6 C  pz        
   110      0.423957   7 C  pz              125      0.423957   8 C  pz        
    29     -0.273943   2 C  s                44      0.273943   3 C  s         

 Vector   62  Occ=0.000000D+00  E= 1.567595D-01  Symmetry=e'
              MO Center=  6.2D-01, -7.9D-01, -1.4D-15, r^2= 9.5D+00
   Bfn.  Coefficient  Atom+Function         Bfn.  Coefficient  Atom+Function  
  ----- ------------  ---------------      ----- ------------  ---------------
   124      1.543441   8 C  py              164      1.338080  11 O  s         
    94      0.902181   6 C  py              134     -0.903356   9 O  s         
    93      0.609411   6 C  px              149     -0.434723  10 O  s         
    34      0.430916   2 C  py               49      0.430916   3 C  py        
   108     -0.429096   7 C  px              109      0.385953   7 C  py        

 Vector   63  Occ=0.000000D+00  E= 1.567595D-01  Symmetry=e'
              MO Center= -6.2D-01,  7.9D-01,  1.4D-15, r^2= 9.5D+00
   Bfn.  Coefficient  Atom+Function         Bfn.  Coefficient  Atom+Function  
  ----- ------------  ---------------      ----- ------------  ---------------
   108      1.501763   7 C  px              149      1.294094  10 O  s         
   134     -1.023528   9 O  s                93      0.985536   6 C  px        
    94      0.727140   6 C  py               33      0.430916   2 C  px        
    48      0.430916   3 C  px              123      0.344276   8 C  px        
   104     -0.331034   7 C  s               109     -0.311367   7 C  py        

 Vector   64  Occ=0.000000D+00  E= 1.847920D-01  Symmetry=a1'
              MO Center= -3.0D-14,  3.6D-14, -7.6D-14, r^2= 8.9D+00
   Bfn.  Coefficient  Atom+Function         Bfn.  Coefficient  Atom+Function  
  ----- ------------  ---------------      ----- ------------  ---------------
    26      2.465927   1 Fe dzz              29     -1.836193   2 C  s         
    44     -1.836193   3 C  s                89      1.348808   6 C  s         
   104      1.348808   7 C  s               119      1.348808   8 C  s         
    21     -1.194690   1 Fe dxx              24     -1.194690   1 Fe dyy       
    35      1.056279   2 C  pz               50     -1.056279   3 C  pz        

 Vector   65  Occ=0.000000D+00  E= 2.349074D-01  Symmetry=e'
              MO Center=  2.2D-01,  6.7D-01,  4.8D-17, r^2= 6.5D+00
   Bfn.  Coefficient  Atom+Function         Bfn.  Coefficient  Atom+Function  
  ----- ------------  ---------------      ----- ------------  ---------------
   119      2.201721   8 C  s               104     -1.677118   7 C  s         
    13      1.589965   1 Fe py               21      1.526138   1 Fe dxx       
    24     -1.526138   1 Fe dyy              12     -0.986430   1 Fe px        
   124      0.922239   8 C  py               22      0.715013   1 Fe dxy       
   108     -0.676477   7 C  px               89     -0.524604   6 C  s         

 Vector   66  Occ=0.000000D+00  E= 2.349074D-01  Symmetry=e'
              MO Center= -2.2D-01, -6.7D-01, -5.1D-15, r^2= 6.5D+00
   Bfn.  Coefficient  Atom+Function         Bfn.  Coefficient  Atom+Function  
  ----- ------------  ---------------      ----- ------------  ---------------
    22      3.052276   1 Fe dxy              89     -2.239449   6 C  s         
    12      1.589965   1 Fe px              104      1.574044   7 C  s         
    13      0.986430   1 Fe py               93      0.733721   6 C  px        
   108      0.711814   7 C  px               94      0.663829   6 C  py        
   119      0.665404   8 C  s               120      0.532369   8 C  px        

 Vector   67  Occ=0.000000D+00  E= 2.598492D-01  Symmetry=a1'
              MO Center= -2.2D-13, -4.0D-14, -5.3D-15, r^2= 1.0D+01
   Bfn.  Coefficient  Atom+Function         Bfn.  Coefficient  Atom+Function  
  ----- ------------  ---------------      ----- ------------  ---------------
    89      0.956135   6 C  s               104      0.956135   7 C  s         
   108     -0.956784   7 C  px              119      0.956135   8 C  s         
   124     -0.956784   8 C  py              134     -0.940296   9 O  s         
   149     -0.940296  10 O  s               164     -0.940296  11 O  s         
    21     -0.858480   1 Fe dxx              24     -0.858480   1 Fe dyy       

 Vector   68  Occ=0.000000D+00  E= 2.714057D-01  Symmetry=e"
              MO Center=  2.1D-01, -9.6D-03,  3.0D-15, r^2= 7.3D+00
   Bfn.  Coefficient  Atom+Function         Bfn.  Coefficient  Atom+Function  
  ----- ------------  ---------------      ----- ------------  ---------------
    25      5.388511   1 Fe dyz              23      2.086470   1 Fe dxz       
    95     -1.728619   6 C  pz              125      1.525615   8 C  pz        
    34     -1.359766   2 C  py               49      1.359766   3 C  py        
    33     -0.526511   2 C  px               48      0.526511   3 C  px        
    19      0.269621   1 Fe dyz              92      0.250268   6 C  pz        

 Vector   69  Occ=0.000000D+00  E= 2.714057D-01  Symmetry=e"
              MO Center= -2.1D-01,  9.6D-03,  5.7D-15, r^2= 7.3D+00
   Bfn.  Coefficient  Atom+Function         Bfn.  Coefficient  Atom+Function  
  ----- ------------  ---------------      ----- ------------  ---------------
    23      5.388511   1 Fe dxz              25     -2.086470   1 Fe dyz       
   110      1.878833   7 C  pz               33     -1.359766   2 C  px        
    48      1.359766   3 C  px              125     -1.115223   8 C  pz        
    95     -0.763610   6 C  pz               34      0.526511   2 C  py        
    49     -0.526511   3 C  py              107     -0.272016   7 C  pz        

 Vector   70  Occ=0.000000D+00  E= 2.950050D-01  Symmetry=a1'
              MO Center= -1.8D-14, -1.4D-14,  1.2D-15, r^2= 9.0D+00
   Bfn.  Coefficient  Atom+Function         Bfn.  Coefficient  Atom+Function  
  ----- ------------  ---------------      ----- ------------  ---------------
     5      5.529654   1 Fe s                26     -2.802908   1 Fe dzz       
    21     -1.842436   1 Fe dxx              24     -1.842436   1 Fe dyy       
     4     -0.600264   1 Fe s                29      0.532054   2 C  s         
    44      0.532054   3 C  s                59     -0.383212   4 O  s         
    74     -0.383212   5 O  s                 3      0.364363   1 Fe s         

 Vector   71  Occ=0.000000D+00  E= 3.113839D-01  Symmetry=e"
              MO Center=  2.4D-02, -8.4D-02, -1.4D-15, r^2= 6.5D+00
   Bfn.  Coefficient  Atom+Function         Bfn.  Coefficient  Atom+Function  
  ----- ------------  ---------------      ----- ------------  ---------------
    23      1.071361   1 Fe dxz              30     -0.528045   2 C  px        
    45      0.528045   3 C  px               33      0.468508   2 C  px        
    48     -0.468508   3 C  px              107      0.313569   7 C  pz        
    92     -0.310431   6 C  pz               25      0.277091   1 Fe dyz       
   110      0.222744   7 C  pz               95     -0.220514   6 C  pz        

 Vector   72  Occ=0.000000D+00  E= 3.113839D-01  Symmetry=e"
              MO Center= -2.4D-02,  8.4D-02, -1.3D-15, r^2= 6.5D+00
   Bfn.  Coefficient  Atom+Function         Bfn.  Coefficient  Atom+Function  
  ----- ------------  ---------------      ----- ------------  ---------------
    25      1.071361   1 Fe dyz              31     -0.528045   2 C  py        
    46      0.528045   3 C  py               34      0.468508   2 C  py        
    49     -0.468508   3 C  py              122      0.360267   8 C  pz        
    23     -0.277091   1 Fe dxz             125      0.255915   8 C  pz        
   170     -0.208358  11 O  pz               92     -0.182851   6 C  pz        

 Vector   73  Occ=0.000000D+00  E= 3.431391D-01  Symmetry=a2"
              MO Center=  1.0D-14, -3.6D-15,  2.9D-14, r^2= 1.1D+01
   Bfn.  Coefficient  Atom+Function         Bfn.  Coefficient  Atom+Function  
  ----- ------------  ---------------      ----- ------------  ---------------
    14      2.483281   1 Fe pz               35      1.471748   2 C  pz        
    50      1.471748   3 C  pz               59     -0.814537   4 O  s         
    74      0.814537   5 O  s                95     -0.759755   6 C  pz        
   110     -0.759755   7 C  pz              125     -0.759755   8 C  pz        
    29     -0.751419   2 C  s                44      0.751419   3 C  s         

 Vector   74  Occ=0.000000D+00  E= 3.456018D-01  Symmetry=e'
              MO Center= -4.7D-01,  1.6D-01, -6.0D-16, r^2= 8.6D+00
   Bfn.  Coefficient  Atom+Function         Bfn.  Coefficient  Atom+Function  
  ----- ------------  ---------------      ----- ------------  ---------------
    12      1.720081   1 Fe px               22     -1.683875   1 Fe dxy       
    21      1.347848   1 Fe dxx              24     -1.347848   1 Fe dyy       
    94      1.229263   6 C  py              108      1.170412   7 C  px        
   149      0.974005  10 O  s               123     -0.946939   8 C  px        
   124     -0.849004   8 C  py              104     -0.842363   7 C  s         

 Vector   75  Occ=0.000000D+00  E= 3.456018D-01  Symmetry=e'
              MO Center=  4.7D-01, -1.6D-01,  6.3D-15, r^2= 8.6D+00
   Bfn.  Coefficient  Atom+Function         Bfn.  Coefficient  Atom+Function  
  ----- ------------  ---------------      ----- ------------  ---------------
    22      2.695695   1 Fe dxy              13     -1.720081   1 Fe py        
   109      1.229364   7 C  py               93     -1.215643   6 C  px        
   124     -0.887986   8 C  py              123      0.862624   8 C  px        
   164     -0.860444  11 O  s                21      0.841937   1 Fe dxx       
    24     -0.841937   1 Fe dyy             134      0.826582   9 O  s         

 Vector   76  Occ=0.000000D+00  E= 3.734220D-01  Symmetry=a1'
              MO Center= -3.6D-14,  3.6D-14,  2.0D-13, r^2= 1.2D+01
   Bfn.  Coefficient  Atom+Function         Bfn.  Coefficient  Atom+Function  
  ----- ------------  ---------------      ----- ------------  ---------------
    29      4.784428   2 C  s                44      4.784428   3 C  s         
    26     -4.168211   1 Fe dzz               5     -1.834914   1 Fe s         
    59     -1.581438   4 O  s                74     -1.581438   5 O  s         
    21      1.247834   1 Fe dxx              24      1.247834   1 Fe dyy       
    65      0.911161   4 O  pz               80     -0.911161   5 O  pz        

 Vector   77  Occ=0.000000D+00  E= 3.845109D-01  Symmetry=a2'
              MO Center=  5.8D-15,  2.8D-15,  2.1D-29, r^2= 8.3D+00
   Bfn.  Coefficient  Atom+Function         Bfn.  Coefficient  Atom+Function  
  ----- ------------  ---------------      ----- ------------  ---------------
   109      0.822967   7 C  py              123     -0.822967   8 C  px        
    93      0.602454   6 C  px               94     -0.602454   6 C  py        
   106     -0.425295   7 C  py              120      0.425295   8 C  px        
    90     -0.311338   6 C  px               91      0.311338   6 C  py        
   108      0.220513   7 C  px              124     -0.220513   8 C  py        

 Vector   78  Occ=0.000000D+00  E= 3.932118D-01  Symmetry=e'
              MO Center=  5.9D-01,  4.8D-01,  4.9D-16, r^2= 7.4D+00
   Bfn.  Coefficient  Atom+Function         Bfn.  Coefficient  Atom+Function  
  ----- ------------  ---------------      ----- ------------  ---------------
    21      1.973255   1 Fe dxx              24     -1.973255   1 Fe dyy       
    94      1.626401   6 C  py               93     -1.594827   6 C  px        
   123     -1.098107   8 C  px               12      0.908501   1 Fe px        
   109      0.901827   7 C  py               13     -0.821993   1 Fe py        
   124     -0.683092   8 C  py              108      0.653612   7 C  px        

 Vector   79  Occ=0.000000D+00  E= 3.932118D-01  Symmetry=e'
              MO Center= -5.9D-01, -4.8D-01, -9.0D-16, r^2= 7.4D+00
   Bfn.  Coefficient  Atom+Function         Bfn.  Coefficient  Atom+Function  
  ----- ------------  ---------------      ----- ------------  ---------------
    22      3.946510   1 Fe dxy             109      2.013160   7 C  py        
   123      1.913183   8 C  px               13     -0.908501   1 Fe py        
    12     -0.821993   1 Fe px               34     -0.425075   2 C  py        
    49     -0.425075   3 C  py               93     -0.396310   6 C  px        
    33     -0.384599   2 C  px               48     -0.384599   3 C  px        

 Vector   80  Occ=0.000000D+00  E= 4.653034D-01  Symmetry=e'
              MO Center=  1.4D-01,  1.1D-01, -9.2D-16, r^2= 7.3D+00
   Bfn.  Coefficient  Atom+Function         Bfn.  Coefficient  Atom+Function  
  ----- ------------  ---------------      ----- ------------  ---------------
    22      6.634419   1 Fe dxy              89     -5.361752   6 C  s         
   119      2.881845   8 C  s                13      2.735754   1 Fe py        
    12      2.508770   1 Fe px              104      2.479908   7 C  s         
   109      1.586976   7 C  py              123      1.474937   8 C  px        
   124      1.159418   8 C  py              108      1.082853   7 C  px        

 Vector   81  Occ=0.000000D+00  E= 4.653034D-01  Symmetry=e'
              MO Center= -1.4D-01, -1.1D-01, -2.7D-14, r^2= 7.3D+00
   Bfn.  Coefficient  Atom+Function         Bfn.  Coefficient  Atom+Function  
  ----- ------------  ---------------      ----- ------------  ---------------
   104      4.759443   7 C  s               119     -4.527384   8 C  s         
    21     -3.317209   1 Fe dxx              24      3.317209   1 Fe dyy       
    12      2.735754   1 Fe px               13     -2.508770   1 Fe py        
    93      1.486382   6 C  px               94     -1.402320   6 C  py        
   123      1.360607   8 C  px              109     -1.228086   7 C  py        

 Vector   82  Occ=0.000000D+00  E= 4.660724D-01  Symmetry=a2"
              MO Center= -3.3D-14, -6.3D-14, -1.2D-13, r^2= 5.7D+00
   Bfn.  Coefficient  Atom+Function         Bfn.  Coefficient  Atom+Function  
  ----- ------------  ---------------      ----- ------------  ---------------
    14      4.705614   1 Fe pz               29     -3.549252   2 C  s         
    44      3.549252   3 C  s                35      1.821971   2 C  pz        
    50      1.821971   3 C  pz               65     -0.602324   4 O  pz        
    80     -0.602324   5 O  pz               62     -0.321104   4 O  pz        
    77     -0.321104   5 O  pz               11      0.319126   1 Fe pz        

 Vector   83  Occ=0.000000D+00  E= 4.708456D-01  Symmetry=e"
              MO Center=  2.7D-02,  3.5D-01,  3.6D-14, r^2= 9.0D+00
   Bfn.  Coefficient  Atom+Function         Bfn.  Coefficient  Atom+Function  
  ----- ------------  ---------------      ----- ------------  ---------------
    23      3.174279   1 Fe dxz              33     -1.728796   2 C  px        
    48      1.728796   3 C  px               25      1.460710   1 Fe dyz       
    34     -0.795541   2 C  py               49      0.795541   3 C  py        
    95      0.491808   6 C  pz               92     -0.430094   6 C  pz        
   110     -0.403367   7 C  pz              107      0.352751   7 C  pz        

 Vector   84  Occ=0.000000D+00  E= 4.708456D-01  Symmetry=e"
              MO Center= -2.7D-02, -3.5D-01, -1.4D-14, r^2= 9.0D+00
   Bfn.  Coefficient  Atom+Function         Bfn.  Coefficient  Atom+Function  
  ----- ------------  ---------------      ----- ------------  ---------------
    25      3.174279   1 Fe dyz              34     -1.728796   2 C  py        
    49      1.728796   3 C  py               23     -1.460710   1 Fe dxz       
    33      0.795541   2 C  px               48     -0.795541   3 C  px        
   125     -0.516829   8 C  pz              122      0.451976   8 C  pz        
   110      0.335007   7 C  pz              107     -0.292969   7 C  pz        

 Vector   85  Occ=0.000000D+00  E= 5.081524D-01  Symmetry=a1'
              MO Center=  1.2D-13,  3.1D-14,  7.4D-15, r^2= 1.1D+01
   Bfn.  Coefficient  Atom+Function         Bfn.  Coefficient  Atom+Function  
  ----- ------------  ---------------      ----- ------------  ---------------
     5      3.377990   1 Fe s                 4     -2.131420   1 Fe s         
    26     -1.516132   1 Fe dzz              89     -1.168721   6 C  s         
   104     -1.168721   7 C  s               119     -1.168721   8 C  s         
   153      0.821573  10 O  px              169      0.821573  11 O  py        
    21     -0.627391   1 Fe dxx              24     -0.627391   1 Fe dyy       


 center of mass
 --------------
 x =  -0.00000000 y =  -0.00000000 z =   0.00000000

 moments of inertia (a.u.)
 ------------------
        2255.012792094188           0.000000000000           0.000000000000
           0.000000000000        2255.012792094188           0.000000000000
           0.000000000000           0.000000000000        1950.260605202691

     Multipole analysis of the density
     ---------------------------------

     L   x y z        total         alpha         beta         nuclear
     -   - - -        -----         -----         ----         -------
     0   0 0 0     -0.000000    -48.000000    -48.000000     96.000000

     1   1 0 0      0.000000      0.000000      0.000000     -0.000000
     1   0 1 0      0.000000      0.000000      0.000000     -0.000000
     1   0 0 1     -0.000000     -0.000000     -0.000000      0.000000

     2   2 0 0    -53.248312   -270.467235   -270.467235    487.686157
     2   1 1 0      0.000000      0.000000      0.000000     -0.000000
     2   1 0 1     -0.000000     -0.000000     -0.000000     -0.000000
     2   0 2 0    -53.248312   -270.467235   -270.467235    487.686157
     2   0 1 1     -0.000000     -0.000000     -0.000000      0.000000
     2   0 0 2    -52.224865   -346.162619   -346.162619    640.100373


 Parallel integral file used     258 records with       0 large values


 Task  times  cpu:       23.8s     wall:       23.9s


                                NWChem Input Module
                                -------------------


 Summary of allocated global arrays
-----------------------------------
  No active global arrays



                         GA Statistics for process    0
                         ------------------------------

       create   destroy   get      put      acc     scatter   gather  read&inc
calls:  594      594     2.46e+05 1.44e+05 1.44e+05    0        0     6.72e+04 
number of processes/call 1.00e+00 1.00e+00 1.00e+00 0.00e+00 0.00e+00
bytes total:             5.92e+08 2.31e+08 1.97e+08 0.00e+00 0.00e+00 5.37e+05
bytes remote:            0.00e+00 0.00e+00 0.00e+00 0.00e+00 0.00e+00 0.00e+00
Max memory consumed for GA by this process: 9664512 bytes

MA_summarize_allocated_blocks: starting scan ...
MA_summarize_allocated_blocks: scan completed: 0 heap blocks, 0 stack blocks
MA usage statistics:

	allocation statistics:
					      heap	     stack
					      ----	     -----
	current number of blocks	         0	         0
	maximum number of blocks	        36	        65
	current total bytes		         0	         0
	maximum total bytes		 220127056	  69398376
	maximum total K-bytes		    220128	     69399
	maximum total M-bytes		       221	        70


                                     CITATION
                                     --------
                Please cite the following reference when publishing
                           results obtained with NWChem:

                 M. Valiev, E.J. Bylaska, N. Govind, K. Kowalski,
              T.P. Straatsma, H.J.J. van Dam, D. Wang, J. Nieplocha,
                        E. Apra, T.L. Windus, W.A. de Jong
                 "NWChem: a comprehensive and scalable open-source
                  solution for large scale molecular simulations"
                      Comput. Phys. Commun. 181, 1477 (2010)
                           doi:10.1016/j.cpc.2010.04.018

                                      AUTHORS
                                      -------
          E. Apra, E. J. Bylaska, W. A. de Jong, N. Govind, K. Kowalski,
       T. P. Straatsma, M. Valiev, H. J. J. van Dam, D. Wang, T. L. Windus,
        J. Hammond, J. Autschbach, K. Bhaskaran-Nair, J. Brabec, K. Lopata,
        S. Krishnamoorthy, W. Ma, M. Klemm, O. Villa, Y. Chen, V. Anisimov,
    F. Aquino, S. Hirata, M. T. Hackler, T. Risthaus, M. Malagoli, A. Marenich,
   A. Otero-de-la-Roza, J. Mullin, P. Nichols, R. Peverati, J. Pittner, Y. Zhao,
         P.-D. Fan, A. Fonari, R. J. Harrison, M. Dupuis, D. Silverstein,
    D. M. A. Smith, J. Nieplocha, V. Tipparaju, M. Krishnan, B. E. Van Kuiken,
        A. Vazquez-Mayagoitia, L. Jensen, M. Swart, Q. Wu, T. Van Voorhis,
     A. A. Auer, M. Nooijen, L. D. Crosby, E. Brown, G. Cisneros, G. I. Fann,
   H. Fruchtl, J. Garza, K. Hirao, R. A. Kendall, J. A. Nichols, K. Tsemekhman,
    K. Wolinski, J. Anchell, D. E. Bernholdt, P. Borowski, T. Clark, D. Clerc,
   H. Dachsel, M. J. O. Deegan, K. Dyall, D. Elwood, E. Glendening, M. Gutowski,
   A. C. Hess, J. Jaffe, B. G. Johnson, J. Ju, R. Kobayashi, R. Kutteh, Z. Lin,
   R. Littlefield, X. Long, B. Meng, T. Nakajima, S. Niu, L. Pollack, M. Rosing,
   K. Glaesemann, G. Sandrone, M. Stave, H. Taylor, G. Thomas, J. H. van Lenthe,
                               A. T. Wong, Z. Zhang.

 Total times  cpu:       23.8s     wall:       24.0s
